#Generated by cif2cell 1.2.45.  :  Failed to get author information, No journal information.

6 atoms
2 atom types

0.0 3.190316 xlo xhi
0.0 2.762894 ylo yhi
0.0 14.879004 zlo zhi
-1.59515785 0.0 0.0 xy xz yz

Masses

1 95.96 # Mo
2 32.0675 # S

Atoms

1 1   0.000000000000000   1.841929628194889   3.719751000000000 
2 1   1.595157850000000   0.920964814097445  11.159253000000001 
3 2   1.595157850000000   0.920964814097445   5.284635366696000 
4 2   0.000000000000000   1.841929628194889  12.724137366696002 
5 2   1.595157850000000   0.920964814097445   2.154866633304001 
6 2   0.000000000000000   1.841929628194889   9.594368633304001 
